# t (s)	mx ()	my ()	mz ()	B_extx (T)	B_exty (T)	B_extz (T)
0	1	0	0	0	0	0
1.0009297473695325e-10	0.9999536	-1.1225228e-07	1.5606263e-08	0	0	0
2.0002236612447603e-10	0.9999332	-4.5269917e-07	3.2696178e-08	0	0	0
3.00045343353908e-10	0.9999803	-1.0697929e-06	5.5679575e-08	0	0	0
4.000156655672854e-10	0.999984	-2.0864445e-06	8.996518e-08	0	0	0
5e-10	0.99996024	-3.7055004e-06	1.4238512e-07	0	0	0
