# t (s)	mx ()	my ()	mz ()	B_extx (T)	B_exty (T)	B_extz (T)
0	0.9999723	-7.556346e-09	0	0	0	0
1.0007512732369476e-10	0.9999723	-1.04120105e-07	1.3625336e-08	0	0	0
2.000681270682628e-10	0.99997216	-3.8940448e-07	2.7079231e-08	0	0	0
3.0001726724180663e-10	0.9999723	-9.011912e-07	4.583945e-08	0	0	0
4.000587255131574e-10	0.9999723	-1.7418846e-06	7.4729684e-08	0	0	0
5e-10	0.9999723	-3.0978433e-06	1.1964713e-07	0	0	0
